! Touchstone file from project Parche 2AnilloGND
! Exported from HFSS 2018.0.0
! Variables:
!  L = 8.35mm
!  S = 0.0001mm
!  W = 8.1mm
!  a = 80mm
!  a1 = 25mm
!  ancho = 1.5mm
!  b = 10.43mm
!  c = 41.75mm
!  d = 63.5mm
!  e = 0.018mm
!  gnd1 = 44.5mm
!  gnd2 = 65mm
!  h = 3.175mm
!  r1 = 0.265mm
!  r2 = 0.825mm
!  rb = 0.2mm
!  teta = 45.8706894984344deg
!  u = 1mm
!  v = 7.3mm
!  x0 = 6mm
!  y0 = 0mm
!Data is not renormalized
# GHZ S MA
! Modal data exported
! Port[1] = 1:1
5.5              0.320312146614994 107.942746470676 
5.5005           0.319518306275944 107.851038600871 
5.501            0.318724387383519 107.759442638483 
5.5015           0.317930394409321 107.667959392152 
5.502            0.317136331829029 107.576589676887 
5.5025           0.316342204122408 107.485334314129 
5.503            0.315548015773342 107.394194131819 
5.5035           0.314753771269846 107.30316996446  
5.504            0.313959475104095 107.212262653188 
5.5045           0.313165131772446 107.121473045842 
5.505            0.312370745775456 107.030801997024 
5.5055           0.311576321617911 106.94025036818  
5.506            0.310781863808842 106.849819027661 
5.5065           0.309987376861561 106.759508850799 
5.507            0.309192865293673 106.669320719977 
5.5075           0.308398333627102 106.579255524701 
5.508            0.307603786388123 106.489314161678 
5.5085           0.306809228107384 106.399497534883 
5.509            0.306014663319924 106.309806555643 
5.5095           0.305220096565211 106.220242142703 
5.51             0.304425532387156 106.130805222314 
5.5105           0.30363097533415 106.0414967283   
5.511            0.302836429959082 105.952317602145 
5.5115           0.302041900819373 105.863268793069 
5.512            0.301247392476996 105.774351258109 
5.5125           0.300452909498511 105.6855659622   
5.513            0.29965845645509 105.59691387826  
5.5135           0.298864037922541 105.508395987268 
5.514            0.298069658481347 105.420013278356 
5.5145           0.297275322716683 105.331766748886 
5.515            0.296481035218454 105.243657404545 
5.5155           0.295686800581324 105.155686259423 
5.516            0.294892623404741 105.067854336111 
5.5165           0.294098508292972 104.980162665783 
5.517            0.293304459855133 104.89261228829  
5.5175           0.292510482705221 104.805204252252 
5.518            0.291716581462142 104.717939615147 
5.5185           0.290922760749748 104.630819443409 
5.519            0.290129025196865 104.543844812522 
5.5195           0.289335379437328 104.457016807113 
5.52             0.288541828110016 104.370336521054 
5.5205           0.287748375858881 104.283805057555 
5.521            0.286955027332986 104.197423529268 
5.5215           0.286161787186536 104.111193058385 
5.522            0.285368660078918 104.025114776743 
5.5225           0.284575650674729 103.939189825922 
5.523            0.283782763643816 103.853419357354 
5.5235           0.282990003661314 103.767804532427 
5.524            0.282197375407677 103.682346522592 
5.5245           0.28140488356872 103.597046509471 
5.525            0.280612532835653 103.511905684968 
5.5255           0.279820327905118 103.426925251377 
5.526            0.279028273479233 103.342106421499 
5.5265           0.278236374265623 103.25745041875  
5.527            0.277444634977467 103.172958477281 
5.5275           0.27665306033353 103.08863184209  
5.528            0.275861655058208 103.004471769146 
5.5285           0.275070423881566 102.920479525501 
5.529            0.274279371539385 102.836656389417 
5.5295           0.273488502773193 102.753003650486 
5.53             0.272697822330316 102.669522609753 
5.5305           0.271907334963916 102.586214579842 
5.531            0.271117045433039 102.503080885085 
5.5315           0.270326958502652 102.420122861649 
5.532            0.269537078943692 102.337341857665 
5.5325           0.268747411533108 102.254739233362 
5.533            0.267957961053906 102.172316361201 
5.5335           0.267168732295203 102.090074626006 
5.534            0.266379730052258 102.008015425108 
5.5345           0.265590959126534 101.926140168477 
5.535            0.264802424325735 101.844450278866 
5.5355           0.264014130463861 101.762947191953 
5.536            0.263226082361253 101.681632356483 
5.5365           0.262438284844642 101.600507234417 
5.537            0.261650742747204 101.519573301077 
5.5375           0.260863460908602 101.438832045299 
5.538            0.260076444175047 101.358284969581 
5.5385           0.259289697399342 101.277933590238 
5.539            0.258503225440939 101.19777943756  
5.5395           0.257717033165991 101.117824055963 
5.54             0.256931125447406 101.038069004158 
5.5405           0.256145507164901 100.958515855304 
5.541            0.255360183205057 100.879166197177 
5.5415           0.25457515846138 100.800021632336 
5.542            0.253790437834349 100.721083778285 
5.5425           0.253006026231482 100.642354267653 
5.543            0.25222192856739 100.563834748359 
5.5435           0.251438149763836 100.485526883789 
5.544            0.250654694749794 100.407432352974 
5.5445           0.249871568461518 100.32955285077  
5.545            0.249088775842591 100.251890088037 
5.5455           0.248306321843996 100.174445791827 
5.546            0.247524211424175 100.097221705566 
5.5465           0.246742449549096 100.020219589248 
5.547            0.245961041192319 99.9434412196255 
5.5475           0.245179991335056 99.866888390401  
5.548            0.244399304966242 99.7905629124268 
5.5485           0.243618987082602 99.7144666139034 
5.549            0.242839042688722 99.638601340582  
5.5495           0.242059476797115 99.5629689559693 
5.55             0.241280294428292 99.4875713415349 
5.5505           0.240501500610835 99.4124103969223 
5.551            0.239723100381468 99.3374880401618 
5.5515           0.238945098785135 99.2628062078872 
5.552            0.238167500875068 99.1883668555543 
5.5525           0.237390311712869 99.1141719576635 
5.553            0.23661353636858 99.0402235079847 
5.5535           0.23583717992077 98.966523519786  
5.554            0.235061247456606 98.8930740260644 
5.5545           0.234285744071937 98.8198770797807 
5.555            0.233510674871375 98.746934754097  
5.5555           0.232736044968378 98.674249142618  
5.556            0.231961859485334 98.6018223596352 
5.5565           0.231188123553643 98.5296565403743 
5.557            0.230414842313809 98.4577538412466 
5.5575           0.229642020915522 98.3861164401033 
5.558            0.228869664517752 98.3147465364941 
5.5585           0.228097778288837 98.2436463519282 
5.559            0.227326367406574 98.17281813014   
5.5595           0.22655543705831 98.1022641373579 
5.56             0.225784992441047 98.0319866625775 
5.5605           0.225015038761523 97.9619880178374 
5.561            0.224245581236321 97.8922705385001 
5.5615           0.223476625091964 97.8228365835364 
5.562            0.222708175565014 97.7536885358133 
5.5625           0.221940237902179 97.684828802387  
5.563            0.221172817360408 97.6162598147987 
5.5635           0.220405919207008 97.5479840293758 
5.564            0.219639548719739 97.4800039275362 
5.5645           0.218873711186936 97.4123220160987 
5.565            0.218108411907604 97.3449408275948 
5.5655           0.217343656191543 97.2778629205885 
5.566            0.216579449359457 97.2110908799975 
5.5665           0.215815796743066 97.1446273174212 
5.567            0.215052703685235 97.0784748714719 
5.5675           0.21429017554008 97.0126362081118 
5.568            0.213528217673098 96.9471140209936 
5.5685           0.212766835461288 96.8819110318073 
5.569            0.212006034293279 96.8170299906313 
5.5695           0.211245819569452 96.7524736762881 
5.57             0.210486196702075 96.6882448967058 
5.5705           0.209727171115434 96.6243464892846 
5.571            0.208968748245962 96.5607813212684 
5.5715           0.208210933542384 96.497552290122  
5.572            0.207453732465848 96.4346623239134 
5.5725           0.206697150490069 96.3721143817018 
5.573            0.205941193101469 96.3099114539313 
5.5735           0.20518586579933 96.2480565628303 
5.574            0.204431174095933 96.1865527628164 
5.5745           0.203677123516714 96.1254031409072 
5.575            0.202923719600415 96.0646108171376 
5.5755           0.202170967899239 96.0041789449824 
5.576            0.201418873979013 95.9441107117856 
5.5765           0.200667443419343 95.8844093391955 
5.577            0.199916681813778 95.8250780836067 
5.5775           0.199166594769982 95.766120236608  
5.578            0.198417187909899 95.7075391254373 
5.5785           0.197668466869924 95.6493381134421 
5.579            0.196920437301084 95.5915206005488 
5.5795           0.19617310486921 95.5340900237366 
5.58             0.19542647525512 95.4770498575193 
5.5805           0.194680554154809 95.420403614435  
5.581            0.19393534727963 95.3641548455415 
5.5815           0.193190860356486 95.3083071409195 
5.582            0.192447099128027 95.2528641301837 
5.5825           0.191704069352847 95.197829483001  
5.583            0.190961776805684 95.1432069096161 
5.5835           0.190220227277625 95.089000161385  
5.584            0.189479426576316 95.0352130313168 
5.5845           0.188739380526171 94.9818493546225 
5.585            0.188000094968593 94.9289130092732 
5.5855           0.187261575762189 94.876407916565  
5.586            0.186523828782991 94.8243380416936 
5.5865           0.185786859924693 94.7727073943364 
5.587            0.185050675098876 94.7215200292438 
5.5875           0.184315280235241 94.670780046839  
5.588            0.183580681281858 94.6204915938263 
5.5885           0.1828468842054  94.570658863809  
5.589            0.182113894991398 94.5212860979161 
5.5895           0.181381719644496 94.4723775854384 
5.59             0.180650364188701 94.4239376644736 
5.5905           0.179919834667653 94.3759707225812 
5.591            0.179190137144883 94.3284811974472 
5.5915           0.178461277704097 94.2814735775586 
5.592            0.177733262449443 94.2349524028875 
5.5925           0.177006097505796 94.1889222655852 
5.593            0.176279789019045 94.1433878106876 
5.5935           0.175554343156386 94.0983537368296 
5.594            0.174829766106617 94.0538247969711 
5.5945           0.174106064080445 94.0098057991327 
5.595            0.173383243310788 93.9663016071433 
5.5955           0.172661310053095 93.9233171413981 
5.596            0.171940270585666 93.8808573796276 
5.5965           0.17122013120997 93.8389273576784 
5.597            0.170500898250986 93.7975321703048 
5.5975           0.169782578057535 93.7566769719729 
5.598            0.169065177002625 93.7163669776755 
5.5985           0.168348701483804 93.6766074637596 
5.599            0.167633157923511 93.6374037687659 
5.5995           0.166918552769444 93.5987612942802 
5.6              0.166204892494928 93.5606855057976 
5.6005           0.165492183599296 93.5231819335993 
5.601            0.164780432608263 93.4862561736416 
5.6015           0.164069646074327 93.4499138884585 
5.602            0.163359830577159 93.4141608080768 
5.6025           0.162650992724017 93.3790027309452 
5.603            0.16194313915015 93.3444455248758 
5.6035           0.161236276519225 93.3104951279998 
5.604            0.16053041152375 93.277157549737  
5.6045           0.159825550885514 93.2444388717788 
5.605            0.159121701356033 93.2123452490857 
5.6055           0.158418869716998 93.1808829108987 
5.606            0.157717062780738 93.1500581617649 
5.6065           0.157016287390689 93.1198773825787 
5.607            0.156316550421874 93.0903470316363 
5.6075           0.155617858781388 93.0614736457062 
5.608            0.154920219408897 93.0332638411139 
5.6085           0.154223639277139 93.0057243148428 
5.609            0.153528125392441 92.9788618456494 
5.6095           0.152833684795249 92.9526832951947 
5.61             0.15214032456065 92.927195609191  
5.6105           0.151448051798928 92.9024058185647 
5.611            0.150756873656109 92.8783210406347 
5.6115           0.150066797314533 92.8549484803076 
5.612            0.149377829993424 92.8322954312881 
5.6125           0.148689978949477 92.8103692773069 
5.613            0.148003251477453 92.7891774933645 
5.6135           0.14731765491079 92.7687276469917 
5.614            0.14663319662222 92.7490273995268 
5.6145           0.145949884024397 92.7300845074102 
5.615            0.145267724570541 92.7119068234952 
5.6155           0.144586725755094 92.6945022983768 
5.616            0.143906895114383 92.6778789817369 
5.6165           0.143228240227297 92.6620450237073 
5.617            0.142550768715981 92.64700867625   
5.6175           0.141874488246539 92.6327782945549 
5.618            0.141199406529748 92.6193623384548 
5.6185           0.14052553132179 92.6067693738588 
5.619            0.139852870424994 92.5950080742022 
5.6195           0.139181431688594 92.5840872219149 
5.62             0.138511223009496 92.5740157099075 
5.6205           0.137842252333072 92.5648025430745 
5.621            0.137174527653945 92.5564568398158 
5.6215           0.136508057016815 92.5489878335759 
5.622            0.135842848517281 92.5424048744    
5.6225           0.135178910302686 92.5367174305091 
5.623            0.13451625057298 92.5319350898916 
5.6235           0.133854877581589 92.5280675619123 
5.624            0.133194799636306 92.52512467894   
5.6245           0.132536025100201 92.523116397991  
5.625            0.131878562392543 92.5220528023907 
5.6255           0.131222419989737 92.5219441034516 
5.626            0.130567606426282 92.5228006421686 
5.6265           0.129914130295744 92.5246328909308 
5.627            0.129262000251748 92.527451455249  
5.6275           0.128611225008986 92.5312670755005 
5.628            0.127961813344241 92.536090628689  
5.6285           0.127313774097436 92.5419331302196 
5.629            0.126667116172692 92.5488057356904 
5.6295           0.126021848539414 92.5567197426969 
5.63             0.125377980233389 92.5656865926528 
5.6305           0.124735520357906 92.5757178726229 
5.631            0.124094478084897 92.5868253171708 
5.6315           0.12345486265609 92.5990208102188 
5.632            0.1228166833842  92.6123163869195 
5.6325           0.122179949654115 92.6267242355407 
5.633            0.121544670924122 92.6422566993596 
5.6335           0.120910856727146 92.6589262785681 
5.634            0.120278516672013 92.6767456321875 
5.6345           0.119647660444731 92.6957275799917 
5.635            0.119018297809793 92.7158851044382 
5.6355           0.118390438611503 92.7372313526057 
5.636            0.117764092775323 92.7597796381378 
5.6365           0.117139270309246 92.7835434431912 
5.637            0.116515981305181 92.8085364203876 
5.6375           0.115894235940374 92.8347723947672 
5.638            0.115274044478838 92.8622653657443 
5.6385           0.114655417272822 92.8910295090617 
5.639            0.114038364764284 92.9210791787433 
5.6395           0.113422897486401 92.9524289090437 
5.64             0.1128090260651  92.9850934163919 
5.6405           0.112196761220609 93.0190876013292 
5.641            0.111586113769034 93.0544265504376 
5.6415           0.110977094623955 93.0911255382574 
5.642            0.110369714798057 93.1292000291935 
5.6425           0.109763985404769 93.1686656794044 
5.643            0.109159917659943 93.2095383386764 
5.6435           0.108557522883547 93.2518340522763 
5.644            0.107956812501378 93.2955690627833 
5.6445           0.107357798046815 93.3407598118947 
5.645            0.106760491162579 93.387422942205  
5.6455           0.106164903602526 93.4355752989534 
5.646            0.105571047233459 93.4852339317379 
5.6465           0.104978934036969 93.5364160961919 
5.647            0.104388576111293 93.5891392556207 
5.6475           0.1037999856732  93.6434210825925 
5.648            0.1032131750599  93.6992794604828 
5.6485           0.102628156730965 93.7567324849658 
5.649            0.102044943270291 93.8157984654491 
5.6495           0.101463547388069 93.8764959264484 
5.65             0.100883981922774 93.9388436088963 
5.6505           0.100306259843191 94.0028604713813 
5.651            0.0997303942504423 94.0685656913112 
5.6515           0.0991563983800518 94.1359786659954 
5.652            0.098584285604018 94.2051190136422 
5.6525           0.0980140694329065 94.2760065742633 
5.653            0.0974457635179649 94.3486614104803 
5.6535           0.0968793816532516 94.4231038082276 
5.654            0.0963149377777822 94.4993542773427 
5.6545           0.0957524459776876 94.5774335520413 
5.655            0.0951919204883898 94.6573625912647 
5.6555           0.0946333756967895 94.7391625788962 
5.656            0.0940768261434654 94.8228549238367 
5.6565           0.0935222865248841 94.9084612599319 
5.657            0.0929697716956161 94.9960034457422 
5.6575           0.0924192966705631 95.0855035641481 
5.658            0.0918708766271884 95.1769839217785 
5.6585           0.0913245269077552 95.2704670482561 
5.659            0.0907802630215586 95.3659756952485 
5.6595           0.0902381006471669 95.4635328353134 
5.66             0.0896980556346559 95.5631616605296 
5.6605           0.0891601440078383 95.664885580901  
5.661            0.0886243819664922 95.7687282225223 
5.6615           0.0880907858885696 95.8747134254962 
5.662            0.0875593723324039 95.9828652415868 
5.6625           0.0870301580388963 96.0932079315991 
5.663            0.0865031599336867 96.20576596247   
5.6635           0.0859783951293004 96.3205640040576 
5.664            0.085455880927274 96.4376269256151 
5.6645           0.0849356348202502 96.556979791933  
5.665            0.0844176744940426 96.6786478591375 
5.6655           0.0839020178296647 96.8026565701268 
5.666            0.0833886829053151 96.9290315496314 
5.6665           0.0828776879983226 97.0577985988808 
5.667            0.0823690515870389 97.1889836898604 
5.6675           0.0818627923526812 97.3226129591404 
5.668            0.0813589291811083 97.458712701261  
5.6685           0.0808574811645394 97.597309361653  
5.669            0.080358467603199 97.738429529077  
5.6695           0.0798619080068841 97.8820999275618 
5.67             0.0793678220964551 98.028347407821  
5.6705           0.0788762298052279 98.1771989381317 
5.671            0.0783871512802799 98.3286815946498 
5.6715           0.077900606883647 98.4828225511459 
5.672            0.0774166171934148 98.6396490681368 
5.6725           0.0769352030046867 98.7991884813962 
5.673            0.0764563853304314 98.9614681898175 
5.6735           0.0759801854021922 99.1265156426109 
5.674            0.0755066246706563 99.2943583258107 
5.6745           0.0750357248060716 99.465023748071  
5.675            0.0745675076984987 99.6385394257292 
5.6755           0.0741019954578981 99.814932867111  
5.676            0.0736392104140305 99.9942315560584 
5.6765           0.0731791751161719 100.176462934655 
5.677            0.0727219123326181 100.36165438513  
5.6775           0.0722674450499851 100.549833210917 
5.678            0.0718157964722786 100.741026616838 
5.6785           0.0713669900197278 100.935261688414 
5.679            0.0709210493273752 101.132565370245 
5.6795           0.0704779982433974 101.332964443479 
5.68             0.0700378608271572 101.536485502321 
5.6805           0.0696006613469674 101.743154929569 
5.681            0.0691664242775545 101.95299887117  
5.6815           0.0687351742972033 102.166043209766 
5.682            0.068306936284579 102.382313537225 
5.6825           0.0678817353152014 102.601835126122 
5.683            0.0674595966575632 102.824632900189 
5.6835           0.0670405457688771 103.050731403688 
5.684            0.0666246082904294 103.280154769721 
5.6845           0.0662118100425358 103.512926687459 
5.685            0.0658021770190761 103.749070368282 
5.6855           0.0653957353815965 103.988608510832 
5.686            0.0649925114529558 104.231563264978 
5.6865           0.0645925317105125 104.477956194688 
5.687            0.064195822778826 104.727808239815 
5.6875           0.0638024114218631 104.981139676808 
5.688            0.0634123245346859 105.237970078359 
5.6885           0.0630255891346152 105.498318271992 
5.689            0.0626422323518499 105.762202297621 
5.6895           0.0622622814195223 106.029639364098 
5.69             0.0618857636631844 106.300645804767 
5.6905           0.0615127064897003 106.575237032078 
5.691            0.0611431373755398 106.853427491269 
5.6915           0.0607770838544526 107.135230613175 
5.692            0.0604145735045172 107.420658766205 
5.6925           0.0600556339345434 107.709723207537 
5.693            0.0597002927698258 108.002434033585 
5.6935           0.0593485776372345 108.298800129813 
5.694            0.0590005161496306 108.598829119943 
5.6945           0.0586561358896053 108.902527314654 
5.695            0.0583154643925261 109.209899659842 
5.6955           0.057978529128893 109.520949684521 
5.696            0.0576453574859949 109.835679448483 
5.6965           0.0573159767488685 110.154089489785 
5.697            0.0569904140805483 110.476178772202 
5.6975           0.0566686965016219 110.801944632739 
5.698            0.0563508508690835 111.131382729331 
5.6985           0.0560369038544922 111.464486988859 
5.699            0.055726881921444 111.801249555611 
5.6995           0.0554208113023629 112.141660740337 
5.7              0.0551187179746243 112.48570897004  
5.7005           0.0548206276360251 112.833380738652 
5.701            0.0545265656796152 113.184660558765 
5.7015           0.0542365571679067 113.539530914573 
5.702            0.0539506268064884 113.897972216195 
5.7025           0.0536687989170652 114.259962755562 
5.703            0.0533910974099497 114.625478664031 
5.7035           0.053117545756041 114.994493871926 
5.704            0.0528481669583153 115.366980070184 
5.7045           0.0525829835228738 115.742906674283 
5.705            0.0523220174295805 116.122240790668 
5.7055           0.0520652901023373 116.504947185831 
5.706            0.0518128223790365 116.890988258273 
5.7065           0.0515646344812445 117.280324013504 
5.707            0.0513207459836666 117.672912042289 
5.7075           0.0510811757834449 118.068707502324 
5.708            0.0508459420693523 118.467663103513 
5.7085           0.0506150622909371 118.86972909703  
5.709            0.0503885531276866 119.27485326834  
5.7095           0.0501664304582707 119.682980934327 
5.71             0.0499487093299396 120.094054944703 
5.7105           0.0497354039281383 120.508015687833 
5.711            0.0495265275464178 120.924801101107 
5.7115           0.0493220925567116 121.344346685992 
5.712            0.0491221103800574 121.766585527865 
5.7125           0.0489265914578402 122.19144832073  
5.713            0.048735545223631 122.618863396897 
5.7135           0.0485489800757075 123.048756761679 
5.714            0.0483669033503292 123.481052133174 
5.7145           0.0481893212958512 123.91567098714  
5.715            0.0480162390477524 124.352532606987 
5.7155           0.0478476606046594 124.791554138874 
5.716            0.0476835888054417 125.232650651875 
5.7165           0.0475240253074557 125.675735203177 
5.717            0.0473689705660115 126.120718908226 
5.7175           0.0472184238151339 126.567511015735 
5.718            0.0470723830496884 127.01601898744  
5.7185           0.0469308450089395 127.466148582469 
5.719            0.0467938051616039 127.917803946157 
5.7195           0.0466612576924566 128.370887703157 
5.72             0.0465331954905516 128.825301054612 
5.7205           0.0464096101391012 129.280943879196 
5.721            0.0462904919070677 129.737714837785 
5.7215           0.0461758297425037 130.195511481486 
5.722            0.0460656112676816 130.654230362777 
5.7225           0.0459598227760414 131.113767149447 
5.723            0.0458584492309832 131.574016741048 
5.7235           0.0457614742665241 132.034873387535 
5.724            0.0456688801898307 132.496230809776 
5.7245           0.0455806479856384 132.957982321584 
5.725            0.0454967573225554 133.420020952933 
5.7255           0.0454171865612478 133.882239574011 
5.726            0.0453419127644935 134.344531019734 
5.7265           0.0452709117090873 134.806788214392 
5.727            0.0452041578995737 135.268904296046 
5.7275           0.0451416245837765 135.730772740321 
5.728            0.0450832837700901 136.192287483249 
5.7285           0.0450291062464889 136.65334304281  
5.729            0.0449790616012098 137.113834638818 
5.7295           0.0449331182450528 137.573658310839 
5.73             0.0448912434352434 138.032711033793 
5.7305           0.0448534033007937 138.490890830946 
5.731            0.0448195628692942 138.948096883996 
5.7315           0.0447896860950679 139.404229639953 
5.732            0.0447637358886089 139.85919091457  
5.7325           0.0447416741472292 140.312883992049 
5.733            0.0447234617868324 140.765213720827 
5.7335           0.0447090587747304 141.216086605192 
5.734            0.0446984241634181 141.665410892569 
5.7345           0.0446915161252177 142.113096656288 
5.735            0.044688291987706 142.559055873698 
5.7355           0.0446887082698331 143.003202499485 
5.736            0.044692720718644 143.445452534098 
5.7365           0.0447002843465137 143.885724087194 
5.737            0.0447113534688048 144.323937436041 
5.7375           0.0447258817418604 144.760015078834 
5.738            0.0447438222012439 145.193881782904 
5.7385           0.0447651273001402 145.625464627809 
5.739            0.0447897489478327 146.054693043345 
5.7395           0.0448176385481762 146.481498842486 
5.74             0.0448487470379826 146.905816249329 
5.7405           0.0448830249252452 147.327581922099 
5.741            0.0449204223271255 147.746734971314 
5.7415           0.044960889007631 148.163216973193 
5.742            0.045004374414917 148.576971978441 
5.7425           0.0450508277181468 148.987946516525 
5.743            0.0451001978438494 149.396089595585 
5.7435           0.0451524335117169 149.801352698125 
5.744            0.0452074832697886 150.203689772648 
5.7445           0.0452652955289699 150.603057221397 
5.745            0.0453258185968426 150.999413884372 
5.7455           0.0453890007107212 151.392721019806 
5.746            0.0454547900699182 151.782942281282 
5.7465           0.0455231348671843 152.170043691675 
5.747            0.0455939833192898 152.553993614109 
5.7475           0.0456672836967232 152.934762720121 
5.748            0.0457429843524799 153.312323955216 
5.7485           0.0458210337499241 153.686652502012 
5.749            0.0459013804897041 154.057725741161 
5.7495           0.0459839733357094 154.425523210227 
5.75             0.0460687612400589 154.790026560719 
5.7505           0.0461556933671118 155.15121951344  
5.751            0.0462447191164992 155.509087812355 
5.7515           0.0463357881451729 155.863619177127 
5.752            0.0464288503884724 156.214803254504 
5.7525           0.0465238560802154 156.562631568711 
5.753            0.0466207557718162 156.907097471016 
5.7535           0.0467195003504404 157.2481960886   
5.754            0.0468200410562066 157.585924272904 
5.7545           0.0469223294984455 157.920280547561 
5.755            0.047026317671032 158.251265056073 
5.7555           0.047131957966805 158.578879509341 
5.756            0.0472392031910899 158.903127133166 
5.7565           0.047348006574345 159.224012615846 
5.757            0.0474583217839464 159.54154205596  
5.7575           0.0475701029351372 159.855722910448 
5.758            0.0476833046011565 160.16656394307  
5.7585           0.0477978818225736 160.474075173332 
5.759            0.047913790115848 160.778267825968 
5.7595           0.0480309854811393 161.079154281028 
5.76             0.0481494244093894 161.376748024662 
5.7605           0.0482690638887016 161.671063600646 
5.761            0.0483898614100393 161.962116562714 
5.7615           0.0485117749722693 162.249923427728 
5.762            0.0486347630865752 162.53450162976  
5.7625           0.0487587847802611 162.81586947509  
5.763            0.048883799599974 163.094046098185 
5.7635           0.0490097676143662 163.369051418664 
5.764            0.0491366494162214 163.640906099288 
5.7645           0.0492644061240709 163.909631504995 
5.765            0.049392999383318 164.17524966299  
5.7655           0.0495223913668983 164.437783223908 
5.766            0.0496525447754951 164.697255424056 
5.7665           0.0497834228373335 164.953690048752 
5.767            0.0499149893075739 165.207111396741 
5.7675           0.0500472084673263 165.457544245716 
5.768            0.0501800451223056 165.705013818918 
5.7685           0.0503134646011479 165.949545752831 
5.769            0.0504474327534085 166.191166065943 
5.7695           0.0505819159472583 166.429901128592 
5.77             0.0507168810668976 166.665777633851 
5.7705           0.050852295509707 166.898822569479 
5.771            0.0509881271831499 167.129063190887 
5.7715           0.0511243445014446 167.356526995135 
5.772            0.0512609163820214 167.581241695919 
5.7725           0.0513978122417809 167.803235199545 
5.773            0.0515350019931666 168.022535581869 
5.7735           0.0516724560400695 168.239171066175 
5.774            0.0518101452735735 168.453170001987 
5.7745           0.0519480410675599 168.664560844775 
5.775            0.0520861152741784 168.873372136549 
5.7755           0.052224340219202 169.079632487316 
5.776            0.0523626886972727 169.283370557368 